
Host: Drs-iMac.local

Timers On : Thu Sep 21 19:35:43 2023
Timers Off: Thu Sep 21 19:35:45 2023

Wall Time:        1.43 seconds

                                                       Time (seconds)
Module                                       User      System        Wall        Calls

--------------------------------------------------------------------------------------

**************************************************************************************

Host: Drs-iMac.local

Timers On : Fri Sep 22 12:37:14 2023
Timers Off: Fri Sep 22 12:37:16 2023

Wall Time:        1.37 seconds

                                                       Time (seconds)
Module                                       User      System        Wall        Calls

--------------------------------------------------------------------------------------

**************************************************************************************

Host: Drs-iMac.local

Timers On : Fri Sep 22 13:59:09 2023
Timers Off: Fri Sep 22 13:59:10 2023

Wall Time:        1.37 seconds

                                                       Time (seconds)
Module                                       User      System        Wall        Calls

--------------------------------------------------------------------------------------

**************************************************************************************

Host: Drs-iMac.local

Timers On : Fri Sep 22 14:02:22 2023
Timers Off: Fri Sep 22 14:02:23 2023

Wall Time:        1.41 seconds

                                                       Time (seconds)
Module                                       User      System        Wall        Calls

--------------------------------------------------------------------------------------

**************************************************************************************

Host: Drs-iMac.local

Timers On : Fri Sep 22 14:05:20 2023
Timers Off: Fri Sep 22 14:05:22 2023

Wall Time:        1.37 seconds

                                                       Time (seconds)
Module                                       User      System        Wall        Calls

--------------------------------------------------------------------------------------

**************************************************************************************

Host: Drs-iMac.local

Timers On : Fri Sep 22 14:09:21 2023
Timers Off: Fri Sep 22 14:09:22 2023

Wall Time:        1.35 seconds

                                                       Time (seconds)
Module                                       User      System        Wall        Calls

--------------------------------------------------------------------------------------

**************************************************************************************

Host: Drs-iMac.local

Timers On : Fri Sep 22 14:32:15 2023
Timers Off: Fri Sep 22 14:32:16 2023

Wall Time:        1.36 seconds

                                                       Time (seconds)
Module                                       User      System        Wall        Calls

--------------------------------------------------------------------------------------

**************************************************************************************
